416
Lattice="19.763642011 0.0 0.0 0.0 19.763642011 0.0 0.0 0.0 19.763642011" Properties=species:S:1:pos:R:3:forces:R:3 energy=-2671.50480544 stress="-0.009474236362543234 0.0004913877719716631 0.001104990534137246 0.0004913877719716631 -0.009303499880404697 0.0006896368263370929 0.001104990534137246 0.0006896368263370929 -0.0129074221477992" free_energy=-2671.51749442 pbc="T T T"
Cl       2.50593000       2.59377000       2.26525000       0.08444400      -0.68899300       0.78747700
Cl      12.23788000       2.90428000       1.94395000      -0.13285000      -0.32722500       0.79092000
Cl       2.21063000      12.15127000       1.70789000       0.04198200       0.29080000       1.07083900
Cl      11.91008000      12.50347000       2.47817000       0.75396600      -0.34106800       0.52394000
Cl       6.86463000       2.58178000      17.39214000       2.28282200      -0.05266500       1.40534100
Cl      17.21061000       2.48381000      17.52821000       0.95397100       0.33763200      -0.74341100
Cl       6.58359000      12.81786000      17.25924000       0.20623300      -0.71317900      -0.92532500
Cl      17.14213000      12.09953000      17.04451000       0.40388600       0.01469300       0.52208000
Cl      17.38042000      17.25900000       2.40479000       0.00299000      -0.37872000       0.17488000
Cl       7.31446000       7.30723000      12.10901000      -0.21924200      -0.17568300       0.49550600
Cl       7.20599000      17.37371000      12.45446000      -0.32778800      -0.56466800      -0.63317800
Cl      17.23924000      17.16763000      12.67809000      -0.22796800      -0.16896600       0.07285100
Cl      12.69873000       7.45146000       7.11865000      -0.31422300      -1.33227200      -0.00005600
Cl       2.27452000       7.14698000      17.59617000       1.38851600       0.11335900       0.18198400
Cl       2.64362000      17.24397000      17.01899000      -0.66996200      -0.03068600      -0.29961500
Cl      13.09894000      16.95013000      17.72383000      -0.75537300       1.52010000      -1.38771800
Cl      10.72475000      17.94497000       1.03135000      -0.13441200       0.82268800      -0.67272700
Cl      10.52370000       9.68425000      19.28815000      -2.70346400      -0.31001600       2.12688100
Cl      19.53096000      19.72629000       9.63767000       0.17971500       0.14959700       0.59203500
Cl       9.58256000       9.80131000      10.27912000       0.46720700       0.78022100       0.30996700
Cl      15.00946000      10.16561000      14.32341000      -1.08787900      -0.53845500       0.63772100
Cl       5.48410000       9.53877000      14.43702000      -0.58470600       1.75608100       0.24270100
Cl      15.39341000       0.18241000       5.84545000      -0.33070200      -0.09166600      -0.61779800
Cl      14.85787000       9.55920000       5.28344000      -0.04624400       0.42330700      -0.54569400
Cl      19.68635000       5.11109000       5.29348000      -1.75938500      -0.62418400      -1.04617500
Cl       9.47956000       5.38198000       5.02935000       0.68245600      -0.53360400       0.18239300
Cl       9.16890000       5.18427000      15.25297000       0.39346100       0.54040000       0.21086600
Cl      14.51208000       4.65257000       9.48686000       0.47773700       0.60948200       0.47195800
Cl       5.12950000      14.72557000      10.16964000      -0.80878900       0.50679500      -0.35988600
Cl      14.42527000      14.67211000       9.82721000       0.86873300      -0.45431200      -0.14127500
Cl      14.70122000       5.23767000       0.25980000      -0.30465100       0.10335300      -0.55119100
Cl       4.18636000      14.64183000      19.18230000       0.34063300       1.49978700       1.34260000
S        2.07159000       2.52078000      12.36096000       1.35977200      -0.30567600      -0.28330700
S       11.90177000       2.44196000      12.08670000       0.25736300      -0.46604400       0.80596900
S        2.24341000      12.12771000      12.48833000       1.21857200       1.17153200      -0.50640600
S       12.43024000      12.46294000      12.35791000      -0.57783400       0.66565500       0.30918500
S        7.04350000       2.53765000       7.00015000       0.20545800      -0.87593900       0.91203600
S       17.56621000       2.43745000       7.11671000      -0.62011800       0.62343800       0.65643700
S        7.03547000      12.22693000       7.51363000      -0.10940200       0.79860700       0.22042200
S       17.47927000      12.43093000       7.36800000      -0.47903400       0.80321700      -0.61562300
S        7.56320000       8.00935000       2.70289000      -0.93952800      -0.67773100       0.00123100
S       17.53515000       7.58651000       2.47814000      -0.40754600      -0.07148400       1.10209800
S        7.88680000      16.62448000       1.73450000      -0.47056700       0.13315800       2.54651400
S       17.14291000       7.86839000      12.92056000      -0.43509800      -0.83142300      -0.48807100
S        1.93457000       7.69542000       7.69535000       0.16197300      -1.53417300      -0.23264200
S        2.50947000      17.79737000       7.50768000       0.51494800      -1.08349700      -1.24340300
S       12.53037000      17.58040000       7.54198000      -1.09979000      -0.80236000      -0.22562700
S       12.02766000       6.68085000      17.69533000       4.33396100       1.28961500       0.06010400
S       19.50913000       0.12368000       0.69724000       0.91516000      -0.56308100      -0.65059700
S       19.60967000       9.79421000       0.08546000      -0.86475400      -0.45900300      -0.67851300
S        9.30968000      19.30182000      10.42502000      -0.14914300       0.23938700       0.09786900
S        0.47640000       9.85153000       9.92486000      -0.97445700       0.20665000       0.06613100
S       14.86864000      19.70353000      14.73594000       0.22784900      -0.36104700       0.78347700
S        5.06295000      19.21104000      14.67298000      -0.09490900       0.74611600       0.51896700
S        4.46815000       0.73813000       5.11009000      -0.24501300      -0.34061500      -0.81738300
S        4.30195000      10.03335000       4.94807000       1.51871300       0.18573100      -1.21548600
S        0.11622000      14.57395000       4.83935000      -1.01361100      -0.03932800      -0.90518700
S        9.98479000      15.15791000       4.83015000       0.60831000      -0.68638300      -0.28996700
S        0.30013000       5.25946000      15.54079000      -0.98751300      -1.05825000      -1.21150000
S       19.39398000      14.56982000      14.79299000      -0.06768300       0.24925200      -0.29745200
S        9.31365000      14.63723000      14.42802000       1.95840700       0.40707000       0.16216700
S        4.60353000       5.38027000      10.24572000      -1.05319100      -2.45567100       1.11927200
S        5.30449000       5.10848000       0.48973000      -0.49143900      -0.15680400      -0.14623200
S       14.99866000      14.50818000       0.01331000      -0.57614000      -0.15933400      -0.02960700
S        6.16224000       6.52885000       5.94748000      -0.81036200      -0.41542400       0.62306100
S       16.11410000       5.81503000       6.05333000       1.46112300      -0.81491000      -0.64783300
S        6.09760000      15.71120000       6.29724000      -0.55737700       0.90062900       0.44868100
S       16.00010000      16.00346000       6.03246000      -0.35882800      -0.04003200       0.55865000
S        5.92969000       6.86168000      16.12113000      -0.34434600      -1.80778600      -0.57281900
S       15.67086000       5.98549000      16.26265000       0.34439900       0.30446600      -1.81550200
S        6.24137000      15.67568000      15.96155000       0.55672700       1.25095000      -1.85423100
S       15.77471000      15.18882000      16.37916000       0.41906100       1.00125000      -0.51496200
S        3.48154000       6.16908000       3.91449000       1.04784300       0.70598200      -0.72865000
S       14.01448000       6.65672000       3.57313000      -0.28721500       0.50530000       1.19019600
S        3.30768000      15.99498000       4.14514000       1.75599800       0.06212400      -0.37331900
S       13.85028000      15.78759000       3.60995000       0.78869000       0.42413200      -0.01445900
S        3.91939000       6.36238000      13.65005000       0.12722500      -0.63003500      -0.23960600
S       14.07786000       5.87465000      12.78415000       0.53855500       0.27439500       1.17179400
S        3.52195000      15.99094000      13.80616000      -0.55669600      -0.17132900      -0.06992300
S       13.51324000      16.07647000      14.04128000       0.34959000      -0.41471400      -0.20534800
S        0.80439000       5.99811000       1.34061000       0.94588400      -0.04038100      -0.05120700
S       11.25952000       6.29083000       1.13522000      -1.11251800      -0.85630300       0.34947700
S        1.32000000      15.96134000       1.15925000       0.66266500       0.36032800      -0.10935700
S       11.81252000      15.09854000       0.34314000      -0.77727200      -0.07906400       0.34770500
S        1.05576000       6.19539000      11.35440000      -1.33831800       0.08030200      -0.10868100
S       10.64028000       6.45382000      11.06280000       0.43605700      -1.85110500      -0.18819500
S        1.41889000      15.94707000      11.08693000      -0.29118300      -0.27855700      -0.69668200
S       10.71019000      15.68747000      11.28206000       0.05687500       0.79595300      -0.94299100
S        8.39685000       6.00333000       8.93891000      -0.18940500       0.25032800      -1.11878200
S       17.94788000       6.13484000       9.38517000       1.02630000       0.43050000      -0.15171500
S        8.35101000      15.46195000       8.57328000       0.94385600       0.58456200       0.26264900
S       19.15365000      16.15088000       8.65770000      -0.79903100       0.30647500      -0.55631700
S        8.55955000       5.98180000      18.79028000       0.13211100       1.29257100       0.76805500
S       18.48185000       6.02115000      18.60212000      -0.71439800      -0.00648400      -0.85149800
S        8.74446000      15.53973000      18.64193000       0.61324700      -0.18407800      -1.84325300
S       18.72623000      16.24258000      18.47225000       0.74385200      -0.49173800       0.56573300
S        3.45715000       4.33497000       6.26794000       1.07360900      -0.51106900      -0.28424100
S       13.62109000       3.93632000       5.55736000      -0.92490200      -1.25906500       0.18333500
S        3.27333000      13.74932000       6.09696000       0.11227500      -0.84134600       1.42160800
S       13.56236000      13.36300000       5.91815000      -0.13622900       2.19182900       1.71296300
S        4.29166000       3.95794000      16.02025000      -1.51358700       0.22478900       0.86811200
S       13.39789000       4.10007000      15.48187000       0.96844700      -1.11710300      -2.71381200
S        3.70849000      13.62224000      15.78023000      -0.03847400      -0.45971800      -0.31748000
S       13.21359000      13.41876000      15.98055000       0.55736800      -0.51879000      -0.36525400
S        1.44663000       3.58859000      18.77345000      -1.35868300       0.61455800       0.12467600
S       10.81126000       3.38685000      18.52852000       0.11787200       0.59088200       1.70329800
S        1.03759000      13.61586000      18.38014000      -0.71975400       0.20576000       0.27485600
S       10.47554000      12.82080000      18.20322000       0.66730100      -0.97391700      -0.54661700
S        0.88973000       3.96740000       8.77217000      -0.56038700       0.47990800       0.40118300
S       11.49594000       4.11081000       8.97600000      -0.96316400       0.34054100       0.56133300
S        1.31594000      13.51302000       8.58110000       1.22872600       0.20662900       0.77266200
S       11.11026000      13.55428000       8.66431000      -0.19523000       0.40326700       0.20482800
S        6.25032000       3.87896000       3.98355000      -1.17934700       0.14957300       0.00975900
S       15.58415000       3.95251000       3.11023000       1.49227900      -0.18761900       0.85081500
S        6.08010000      13.74534000       4.03109000      -0.34858300      -0.37437200      -0.47908000
S       16.13023000      13.30054000       4.21364000       0.05150400      -0.05556300      -1.45692800
S        6.38283000       3.88067000      13.95192000       0.20769300       1.13578600      -1.79128800
S       16.52147000       3.82851000      13.75477000      -0.20493800      -0.24091400       0.56630600
S        5.88947000      13.76121000      13.14199000       0.30432600       0.02758200       0.60602100
S       15.84419000      13.53659000      13.54088000      -0.33619500      -0.03396500      -0.14760000
S       18.41581000       3.62037000       0.83114000       1.16647700      -0.38717100       0.78269400
S        8.85468000       3.97340000       1.66601000       0.65449400      -0.01279600      -0.83641600
S       18.58703000      13.99781000       1.18911000      -0.38644400      -0.56256700      -0.37640300
S        8.78030000      13.13411000       0.99593000      -0.28716100       2.07798400       1.19884000
S       18.49400000       3.75769000      11.26843000      -0.05363300      -1.35079700       1.05529100
S        8.62187000       3.26247000      10.35331000       0.07662100      -0.04054500       1.14938800
S       18.52044000      13.76757000      10.68689000       0.04722400      -0.43439500       0.53748100
S        8.73352000      13.23967000      10.95299000      -0.55886500      -0.15517800      -0.75749400
S        6.39174000       1.23220000       1.10118000      -0.74785900      -0.27365300      -0.96483500
S       16.02272000       1.41318000       1.91125000      -0.02694200       0.05812700      -0.43777100
S        5.86161000      11.39610000       0.98913000      -1.94908000      -1.71610300       1.35291200
S       16.10005000      11.24936000       0.77479000       0.21471800      -0.61187500       1.81768200
S        5.51066000       1.38028000      11.26073000       0.50165900      -0.51778400      -0.69045600
S       15.94305000       1.03424000      11.34853000      -0.11928400       0.04867600       0.43471900
S        6.09212000      11.23353000      10.79973000      -0.39678700      -0.12580700       0.82605300
S       16.13231000      10.46002000      10.76821000       0.06465300       1.62035700      -0.05734200
S        9.14828000       0.66316000       3.50217000      -0.52108900       0.81892200       1.63586900
S       18.65675000       1.25563000       3.82506000       0.00253200       0.69157900      -0.24924300
S        8.48383000      11.28451000       4.42018000      -0.96595500      -0.17790000      -0.82931100
S       18.31181000      11.01350000       3.64430000      -0.37081100      -1.31549100      -0.31518400
S        8.78208000       1.58200000      14.49589000       0.35720300      -0.62533600      -0.66543100
S       18.43256000       1.32163000      14.16637000       0.46664000      -0.30614500      -0.46504500
S        8.95469000      11.70065000      14.86300000       0.35052700      -1.10372300      -0.93091800
S       19.13416000      11.07929000      13.53614000      -1.21746300      -0.92694300      -0.46872700
S        3.35234000       8.96530000       0.84103000       0.51307200      -0.49895500       0.99673900
S       13.61819000       8.81675000       1.55641000       1.03040100       1.53433800       0.96660500
S        4.05316000      18.78413000       1.14574000      -0.15094400       0.27191300      -0.28026500
S       13.86599000      18.81116000       1.61183000       0.09147400       0.03922500      -1.08374100
S        3.80818000       8.95002000      11.34693000      -0.02698100       0.03546500      -0.60859200
S       13.46499000       8.72719000      10.59491000      -0.32093100      -0.93477400      -0.35939800
S        3.73031000      18.40106000      10.95220000      -0.10169200       1.19545600      -0.82433000
S       13.12046000      18.55738000      10.88672000       1.32700000       0.42617900       0.80297400
S        8.93972000       8.67299000       6.46124000       0.32703000       0.76368700       0.70625500
S       18.37361000       8.95691000       6.24848000       0.21615200       0.67508700      -0.08592700
S        8.86563000      18.44738000       6.24476000       1.25332200       1.75707000       0.01308800
S       18.41313000      18.12921000       5.60677000      -0.18101100       0.80887100       0.18546400
S        8.26074000       8.63196000      16.28677000       2.00872800       1.20665400      -0.68249800
S       18.61866000       8.60659000      15.97945000       0.35701300       0.66868400       0.26631800
S        9.14187000      18.39176000      16.02768000      -0.78531300       0.50671700       1.82845600
S       18.59511000      18.23981000      16.18259000      -0.27921000       0.88813400      -0.58974800
S       15.88131000       8.66128000      18.80360000      -1.21422500      -0.56354700      -0.30674300
S        6.16313000       8.82028000      18.70663000      -0.89636800       1.01479000      -0.51641400
S       16.19503000      18.85697000      19.00986000       0.19098300      -0.95272600       0.20137900
S        6.14197000      18.68272000      18.40030000       0.71935800      -1.28646800       0.52752200
S       16.24686000       8.75095000       8.25086000      -0.66515300      -0.66262600       0.95082100
S        6.16977000       8.72484000       8.92588000      -0.67990200      -1.36110200       0.06874000
S       16.21710000      18.55894000       9.19973000      -0.72070500      -0.21286900      -0.23403800
S        5.85905000      18.86149000       8.36124000      -0.34673900       0.20471200       0.70462900
S       10.82950000       8.86289000      13.82462000      -0.98678300      -0.49618200      -0.88615200
S        1.77188000       8.51302000      14.31228000      -0.54698000       1.23720400      -0.43628500
S       11.15866000      18.67526000      14.09742000       0.54608000       0.97612400      -1.18964900
S        0.65255000      18.39300000      13.44437000       0.38125600       1.22166400       0.25937600
S       10.99698000       8.96796000       3.80255000       0.00842400       0.31124900       0.77362000
S        0.94179000       8.33283000       4.13710000       0.26588500       0.42110000      -0.57534900
S       11.92008000      19.52479000       4.53892000       0.51512300       0.23926500       0.74324300
S        1.12927000      18.59721000       3.64641000       1.00006900      -0.50307600      -0.01432500
S        3.79941000       1.40001000       8.54426000       0.28049500      -0.06592600      -0.30091200
S       13.76038000       1.20658000       8.91564000      -0.51072200      -0.47509300      -1.05919000
S        3.75869000      11.05043000       8.51819000      -0.06498900      -0.26965300       0.65758100
S       13.81589000      10.94217000       8.13569000      -0.08603100      -0.34049900       1.09182000
S        4.06476000       1.07005000      18.03036000      -0.86807900       0.92631200       1.63821300
S       14.49106000       1.58948000      18.75847000      -0.93857100      -0.62163300       0.33686100
S        3.57208000      10.96105000      18.14775000       0.42998000      -0.20260500      -0.28057100
S       13.44409000      11.05484000      19.02875000      -1.04423400       0.63151100      -1.94986200
S        0.83313000       0.92391000       6.29367000      -0.21070600      -0.10309300      -0.29648600
S       10.16931000       2.21509000       6.49102000       1.36775000      -2.78680500      -0.66018000
S        1.03730000      11.38150000       5.43646000      -0.18836000      -0.33046400       0.84604800
S       10.89797000      11.37448000       6.16982000       1.70730500      -1.54451000       0.75018200
S        1.00409000       0.94228000      16.18644000       1.18263200      -0.22239300      -0.33101000
S       11.41625000       1.64036000      16.34083000       0.19965000      -1.57251500      -0.05455100
S        0.89140000      11.22058000      16.10905000       0.83543000      -0.25760800       0.89861300
S       11.40878000      10.23506000      16.33745000       0.12354100       0.95864700       0.53268300
Li       8.36781000       2.65818000       5.08469000      -0.24704600       0.20963300      -0.21686700
Li      18.05389000       4.66792000       7.59119000      -0.26254300      -0.19547000      -0.54398600
Li       5.04861000      14.31516000       7.78214000       0.14908400      -0.81525500       0.35559800
Li      17.46582000      14.34217000       8.58444000      -0.12567200       0.38949500       0.47460300
Li       8.84517000       4.02995000      18.22442000      -1.84172300      -1.89566300      -2.32349700
Li      17.93664000       4.83982000      16.33532000      -0.59419500       0.00120300       0.28631900
Li       6.66331000      12.45916000      19.26366000       1.33320000       1.52854200      -0.46767200
Li      18.02992000      14.48926000      17.12678000       0.22371500      -0.38127100      -0.16101900
Li       4.43174000       6.91422000       1.84624000      -0.03045300      -0.05487100      -0.40897500
Li      13.24749000       5.16034000       2.15070000      -0.32097000      -0.92673300      -0.52189700
Li       1.82944000      14.22033000       3.05746000       0.25864300       0.74970700      -0.01288000
Li      12.17855000      14.42355000       3.75381000      -0.80481700      -0.51661000       0.26997700
Li       2.78528000       4.79204000      11.34434000      -0.39747600      -0.48569200       0.30298700
Li      12.24556000       4.75947000      11.27325000       0.20107400      -0.07451300       0.41193200
Li       2.57748000      14.42483000      12.20705000       0.22532100      -0.40197300       0.25220000
Li      13.14613000      14.78918000      11.65106000      -0.33562100      -0.17228400      -0.00458000
Li       1.52517000       5.87323000       6.20492000       1.22280000       0.93231000       0.25388100
Li      12.18560000       4.69981000       7.01810000      -0.22867200       0.48833200      -0.47133900
Li       1.75158000      15.62666000       5.85539000       0.65321700       0.29993200       0.51191300
Li      12.87538000      15.57893000       8.43487000       0.14230600      -0.49134500       0.01701800
Li       2.04829000       4.64202000      16.74063000       0.72472400       0.40296700       0.11466600
Li      12.57963000       4.40493000      17.36414000      -0.51599400       1.21286700       1.18771300
Li       1.19792000      12.81789000      14.38773000      -0.30922800       0.06623800       0.00263500
Li      13.74709000      14.93411000      17.72838000       0.48960400      -0.86386200       0.47968200
Li       7.01463000       5.55647000       2.57427000       0.46002700       0.29896900      -0.49821700
Li      18.07840000       5.14089000       2.88602000      -0.21435000       0.11982800      -0.32543400
Li      10.17295000      15.59616000       1.91453000      -0.82186300       1.34763600       0.49095800
Li      17.91565000      14.80219000       3.74456000      -0.21216800       0.37295100      -0.53482400
Li       6.76874000       5.04102000      11.54410000       0.52785700      -0.10168900       0.01312700
Li      16.37108000       4.77607000      11.64516000      -0.49287400       0.04405700      -0.67953200
Li       8.27331000      14.84880000      12.51996000      -0.53965300       0.69271900      -0.27220400
Li      17.79784000      14.80518000      12.68195000      -0.01283500      -0.01828300       0.11166600
Li       6.63182000       0.36658000       5.67612000       0.27873300       0.03575200       0.47789600
Li      16.86037000       2.11911000       4.98640000      -0.61831700       0.02826100      -0.13968600
Li       6.06943000      11.83569000       5.53403000      -0.07737600      -0.16322700      -0.41238700
Li      18.56796000      12.69139000       5.15811000      -0.11185500       0.08791900       0.49554200
Li       6.16437000       2.14738000      15.52054000      -0.49897800      -0.08144400      -1.14592900
Li      18.53290000       6.09876000      13.23784000       0.71274800      -0.56239100      -0.29780800
Li       7.41767000      13.38871000      15.19316000      -0.07770600       0.02936200       0.19309800
Li      17.76997000      12.72536000      14.90057000       0.22105800       0.04360000       0.05777500
Li       4.92040000       1.81971000       2.97643000      -0.32221500       0.18308800       0.19715900
Li      16.33430000       3.61852000       0.36982000      -1.32326900      -0.24695600      -0.31136900
Li       4.67506000      12.43247000       2.83647000      -0.40888100      -0.45116700      -0.36128100
Li      14.55994000      12.63921000       1.75344000      -0.07655900       0.74898800      -0.08589900
Li       4.56776000       3.32803000      12.14544000      -0.15125100       0.33868900       0.24002900
Li      14.87440000       1.73660000      13.29076000      -0.08643500       0.48605500      -0.05511000
Li       4.37668000      12.74392000      11.54397000       0.16607200      -0.22844400      -0.34113800
Li      14.64437000      12.44836000      11.63773000      -0.13109200      -0.26716200       0.09215400
Li       0.27185000       2.14507000       1.72323000      -0.26340800      -0.25028100       0.06244100
Li       9.85675000       1.63808000       1.17534000       0.33660600       0.11307700       0.26901100
Li      19.66839000      12.64155000       2.76296000       0.36177900      -0.09526700      -0.19156300
Li       9.40877000      13.17213000       3.38491000       0.27523700      -0.06587500      -0.24579200
Li       0.20488000       1.17641000      11.68890000      -0.11520300       0.07836100       0.17804400
Li      11.32306000       0.61465000      10.78080000       0.66791100       0.19009800      -1.34532200
Li      19.40888000      11.51773000      11.21011000       0.28828400       0.49920400       0.02921400
Li       9.90459000      12.61888000      12.78649000       0.77221000      -0.26213700       0.61136400
Li       6.08377000       3.09617000       9.10887000      -0.07192600      -0.18920700       0.16900000
Li      18.00379000       2.16772000       9.35570000       0.04119400      -0.20310600       0.15588500
Li       6.59473000      13.09207000       9.66671000       0.24273100       0.10533000      -0.38183600
Li      17.76654000      10.73081000       8.68299000       0.16477700      -0.98052100       0.59087100
Li       6.78554000       3.22162000       0.65668000       0.26088600       1.77329400      -0.32461000
Li      18.78060000       1.46197000      18.89450000      -0.20266200       0.18434500       0.36360300
Li       9.70934000      11.45217000       0.30637000       0.67630000      -1.20379900      -0.55968500
Li      18.31135000      12.06853000      19.46692000       0.05831600       0.00724600       0.24341500
Li       2.52722000       2.00401000       4.92199000       0.11764600       0.23133400      -0.23746400
Li      11.01417000       2.76109000       3.98236000       0.16374900       0.06106800      -0.08643400
Li       3.29773000      11.53984000       6.06198000      -0.07294000      -0.24162000       0.43115200
Li      10.77576000      13.49209000       6.19525000       0.35594200       0.82981400       0.15825600
Li       0.77322000       3.22918000      13.97734000      -0.45671400       0.23483800       0.39348800
Li      10.24418000       3.99390000      13.75871000       0.17060400      -0.61728300      -0.19443900
Li       3.98309000      11.61793000      14.38675000      -0.23138500      -0.23057700      -0.18267700
Li      11.71032000      14.61194000      13.73869000      -0.43427300      -0.93836600      -0.52370400
Li       5.08723000       2.80551000       6.13737000      -0.26096500      -0.92290300      -0.15356000
Li      15.05791000       2.05036000       7.17149000       0.38240200       0.51999000      -0.15943200
Li       6.60257000      10.03808000       7.23086000       0.22086600       0.01002900      -0.56721300
Li      15.36289000      12.67504000       8.45858000      -0.33047300       0.04259200      -0.18786900
Li       5.07182000       3.30318000      18.25025000      -0.59303800      -0.11640400       0.34136100
Li      14.64531000       2.18011000      16.28345000       0.00401500      -0.27922000      -0.06594400
Li       3.46940000      12.79152000      19.62627000      -0.31433300      -0.46942800       0.10588600
Li      15.62937000      12.55046000      18.81243000      -0.59580200       0.30395100      -0.69702000
Li      19.68700000       2.89524000      16.80824000      -0.22227600       0.46330100      -0.08016200
Li       9.29830000      17.86836000      18.59381000       1.16620200       0.38970100       0.13881100
Li      18.84433000      10.47580000      17.39408000      -0.01836000       0.12168500       0.15897500
Li      11.02364000      13.20170000      16.07391000      -1.33339600      -0.36380100      -0.46097100
Li      19.42474000       2.92142000       5.84947000      -0.10126100      -0.34551800       0.05081900
Li       7.41321000       4.67239000       6.98370000       0.86232100       0.74222900      -0.08309200
Li      19.69209000      12.36227000       7.32549000       0.02307700      -0.24568100      -0.09170700
Li       8.05034000      13.64710000       5.92563000      -0.27532500       0.10565800       0.12247300
Li      13.30443000       2.90157000      10.24509000      -0.00112900      -0.01728400       0.28487400
Li       2.75872000       1.68285000      10.29315000      -1.32785900       0.68746800       1.49179900