416
Lattice="19.763642011 0.0 0.0 0.0 19.763642011 0.0 0.0 0.0 19.763642011" Properties=species:S:1:pos:R:3:forces:R:3 energy=-2708.27164192 stress="-0.006144846874050704 0.0002721734884523913 -0.00014195688355908882 0.0002721734884523913 -0.0062637476228987795 0.0004925923832329585 -0.00014195688355908882 0.0004925923832329585 -0.006588380995554219" free_energy=-2708.27164192 pbc="T T T"
Cl       2.56858000       2.41927000       2.48365000       0.21346000      -0.17685400      -0.12998000
Cl      12.18038000       2.72732000       2.05881000       0.51701100       0.34247600       0.92530600
Cl       2.28420000      12.24296000       2.06746000      -0.04666000      -0.10903900       0.31682900
Cl      12.11553000      12.65474000       2.33523000       0.67919800      -0.90923200       0.29801200
Cl       7.30748000       2.43571000      17.50114000      -0.13108200       0.30136400      -0.20409000
Cl      17.38618000       2.58579000      17.37900000       0.42053000       0.28674900      -0.49254900
Cl       6.96134000      12.45496000      17.17176000       0.22137300      -0.44855400       0.36438800
Cl      17.21517000      12.12401000      17.27733000       0.06797700       0.04069700       0.42790000
Cl      17.63287000      17.08466000       2.41380000      -0.05007000      -0.11166100      -0.00689700
Cl       7.41282000       7.48170000      12.14557000       0.02418900       0.01519800       0.31992300
Cl       7.33957000      17.29400000      12.42422000       0.12168700      -0.22740300       0.18731900
Cl      16.92620000      17.29533000      12.61522000       0.24826300      -0.42243500      -0.11784000
Cl      12.61334000       7.14703000       7.39764000      -0.49969100       0.17283300      -0.15190600
Cl       2.29199000       7.19550000      17.61186000       0.83275400       0.36352900       0.03612800
Cl       2.41685000      17.26935000      16.79105000       0.23045300      -0.34489800       0.32407300
Cl      12.90687000      16.93429000      17.80527000       0.01126900       0.17319500      -0.38934200
Cl      10.17886000      19.18819000       0.57031000       0.05759200      -0.20565400      -0.60631300
Cl       9.80698000       9.50719000      18.99356000      -0.40197900       0.19459900       1.39124100
Cl      19.42377000       0.04758000       9.51058000       0.22336000       0.13119100       0.51609900
Cl       9.72094000       9.92715000      10.01626000       0.24471100       0.52267300       0.10853500
Cl      14.59272000      10.14134000      14.35429000       0.26309900      -0.52117000       0.24521800
Cl       5.24713000       9.69005000      14.55214000      -1.13797700       0.50079900       0.74632300
Cl      14.77263000       0.30609000       5.54876000       0.11658300      -0.38004200      -0.38284900
Cl      14.86544000       9.40232000       5.37134000       0.29944500       0.84968700      -1.66619600
Cl      19.56724000       5.00441000       5.34134000      -1.14651600      -0.23417300      -0.70327700
Cl       9.69304000       5.20360000       5.10422000       0.57102900      -0.41384000      -0.19186500
Cl       9.63109000       5.54153000      15.36327000       0.32672900      -0.24334200      -0.69441000
Cl      14.37832000       4.98121000       9.48771000      -0.03164800       0.49235100       0.74024500
Cl       5.10103000      14.64938000      10.10942000      -0.37035000       0.11062500      -0.22500300
Cl      14.49740000      14.63674000       9.82963000       1.00175000      -0.54090000       0.51156700
Cl      14.39253000       5.17587000      19.75494000       0.50624500      -0.35904900       0.34127900
Cl       4.58977000      14.98832000      19.45189000       0.27159000      -0.69901400       0.35358800
S        2.18467000       2.67431000      12.19347000       0.60163400       0.18752200       0.11210400
S       12.12076000       2.43964000      12.22598000      -0.43826500      -0.35779800       0.47534900
S        2.28190000      12.35002000      12.22794000       0.39422600       0.11903300       0.72596700
S       12.35030000      12.60476000      12.48680000      -0.14042800      -0.33524600      -0.29402100
S        7.24383000       2.58443000       6.94302000       0.26742900       0.17502400       0.72295200
S       17.46048000       2.33853000       7.10758000      -0.29811400       0.37156100       0.43563300
S        7.09366000      12.35901000       7.51850000      -0.01846200      -0.61918500      -0.98612000
S       17.52317000      12.22470000       7.43956000      -0.90522000       0.70840300      -0.18884700
S        7.48902000       7.86458000       2.83470000      -0.32043000      -0.05475000      -1.04486500
S       17.29502000       7.64120000       2.57776000      -0.02321900      -0.92489300       0.36843200
S        7.80911000      17.23006000       2.62518000      -1.35557700      -0.80594000      -0.00206100
S       17.27247000       7.85691000      12.84653000      -0.60463500      -0.42963700      -1.44557500
S        2.09606000       7.70206000       7.69827000      -0.09585500      -1.05414800      -0.14691400
S        2.48032000      17.68142000       7.43435000       0.02283000      -0.81941900      -0.08877800
S       12.32488000      17.35005000       7.46672000      -0.24345700      -0.15053500       0.12850800
S       12.45205000       7.03349000      17.33864000       0.06162600       1.30292000      -0.43257600
S       19.67021000       0.12453000       0.37817000       0.96254700      -0.90840600       0.05476000
S       19.48789000       9.98759000       0.16480000      -0.51928500      -0.13493800      -0.71101300
S        9.19080000      19.48054000      10.28029000       0.76963900       0.09274500      -0.06127400
S        0.24760000       9.86866000       9.85764000      -0.82365100       1.21475600      -0.07715800
S       14.89631000      19.72291000      14.72365000       0.12413500      -0.32991500       0.51587300
S        5.01748000      19.37586000      14.74889000      -0.15677600       0.20099300      -0.25221700
S        4.68279000       0.43148000       4.95027000      -1.00942300      -0.65044700      -0.65893400
S        4.60094000      10.04341000       4.81042000       0.63032700      -0.03940100      -0.48600300
S        0.17900000      14.50689000       4.86369000      -0.44091000       0.55085600      -1.33656700
S       10.00346000      14.98699000       4.60590000      -0.26206200      -0.35124100       0.54738700
S        0.30390000       5.20974000      15.57501000      -0.92474200      -1.38697100      -0.59320400
S       19.66785000      14.62626000      14.73381000      -1.03875000      -0.48332600       0.39425900
S        9.42453000      14.37031000      14.49380000       1.24209000       0.08400600       1.29268400
S        4.84852000       5.33416000      10.24461000      -0.15199600      -1.38940900       0.72670300
S        5.19321000       5.07948000       0.34062000      -0.44753700      -0.73463100      -0.34743700
S       14.79525000      14.20268000      19.67125000       0.56876400      -0.07108600       0.38973800
S        6.04527000       6.30441000       6.11782000       0.24721200       0.08274700       0.20271100
S       15.90990000       5.95701000       6.19732000       0.23095100      -0.22391400      -0.46989900
S        6.03773000      15.90180000       6.23635000      -0.67063400       0.06246200      -0.12942200
S       16.05344000      16.06317000       6.21217000      -0.09421000      -0.53353800       0.17677500
S        5.97311000       6.87746000      16.16775000      -0.10786800      -0.86463900      -0.19663100
S       15.88652000       5.73520000      16.24544000       0.49925500       0.69104600      -1.01248100
S        5.92158000      15.73123000      16.27420000       0.40501200       0.50453300      -0.50489900
S       15.87658000      15.61231000      16.24133000       0.68222200       1.21268000      -0.01866500
S        3.75389000       6.22202000       3.88906000       0.48900700       0.52565600      -0.51802200
S       13.80676000       6.40997000       3.46211000       0.04615500       0.37415900       1.63583100
S        3.45925000      16.02416000       3.90724000       1.52159300       0.03769500      -0.39980300
S       13.84038000      15.93224000       3.75206000       0.55164700       0.37370800      -0.26056200
S        3.94386000       6.16277000      13.56404000      -0.34314900       0.01794200       0.12542100
S       14.02474000       6.04762000      13.28244000      -1.44756800       1.11668000      -0.11761100
S        3.64579000      15.94584000      13.67092000      -0.38177300      -0.29364900      -0.00614100
S       13.30894000      15.89655000      13.95217000       0.13787500       0.57650700       0.04078900
S        0.86835000       6.03942000       1.45704000       0.79756300       0.06686100       0.15166700
S       11.08768000       6.31775000       0.94219000      -0.52141000      -0.28427600      -0.26931200
S        1.56895000      15.88485000       1.14663000      -0.90413400      -0.01080300      -0.11411200
S       11.26524000      15.49074000       0.92582000       2.22856500      -0.13073400      -0.23704400
S        1.29266000       6.42490000      11.19736000      -0.92710000      -0.95048700      -0.61750400
S       10.84848000       6.49269000      10.98049000      -0.12841200      -0.10537000       0.32523900
S        1.35538000      15.88217000      11.12214000       0.05961800       0.56408200       0.08175800
S       10.85933000      15.72439000      11.13649000       0.10184000       1.03897100      -0.45551000
S        8.66222000       5.98033000       8.78803000      -0.69000400      -0.21377600      -0.62518800
S       18.32668000       6.19241000       9.13184000      -0.08063200       0.45247500      -0.34457000
S        8.46699000      15.57076000       8.61759000       0.29417300      -0.06088300       0.28616100
S       19.05158000      16.37184000       8.76860000      -1.09698200      -0.10238700      -0.63123700
S        8.47314000       5.93108000      18.65111000      -0.16945100       0.06545000       0.44816600
S       18.58049000       6.27044000      18.64580000      -0.08334600      -0.14507100       0.24849700
S        8.96030000      15.96763000      18.34463000      -0.10346700      -0.65342600       0.17371000
S       18.87478000      16.08068000      18.48507000       0.63795000       0.74495400       0.05405800
S        3.45229000       4.11150000       6.01618000       0.80854000      -1.02307800       0.38825300
S       13.50852000       3.89850000       5.78843000      -0.13711200      -0.62012700      -0.48840000
S        3.33069000      13.79133000       6.02884000       0.59250300      -0.38886800       0.60707600
S       13.66161000      13.48465000       5.91843000      -0.18250100       0.13378000       0.49949400
S        4.14231000       3.99677000      16.10851000      -0.25062600       0.03432700       0.12540900
S       13.45593000       3.91192000      15.76683000      -0.82712000      -1.12267800      -0.35714800
S        3.57742000      13.64839000      15.98706000      -0.26518800      -0.44575200      -2.06175800
S       13.64228000      13.44550000      15.93879000      -0.69221000      -0.89044800       0.39872200
S        1.44387000       3.84502000      18.81296000      -0.60840000       0.03727700       0.13943300
S       10.71193000       3.56361000      18.60127000       0.14468700       0.45459300      -0.27405200
S        1.10581000      13.55175000      18.53889000      -0.28842000      -0.18164600       0.00116100
S       11.02874000      13.46595000      17.96081000       0.07875500       0.43289100       0.07748600
S        1.00394000       3.91065000       8.75953000      -0.34930700       0.79532600      -0.13865400
S       11.14333000       3.70433000       9.10899000      -0.31690600       0.69583800      -0.43022100
S        1.32551000      13.80747000       8.48458000       0.25490300      -0.18654100       0.29989300
S       11.14963000      13.44845000       8.66958000      -0.25469700       0.58567200       0.36062000
S        6.38040000       3.84083000       3.85798000      -1.61152000       0.43011600       0.25528700
S       15.69827000       3.88415000       3.35268000       0.95523100      -0.08994400       0.57629200
S        6.07909000      13.60213000       3.97987000      -1.28907300       0.30849500      -0.23395900
S       16.21397000      13.49492000       4.07224000      -0.20792300       0.56084500      -0.75588200
S        6.56824000       4.23568000      14.14001000       0.05912000       0.03657800      -0.51970400
S       15.98435000       3.75478000      13.34255000       0.16039600      -0.14143800       1.26180700
S        5.95680000      13.87314000      13.42091000      -0.09837800      -0.85087100       0.37406300
S       16.00850000      13.78862000      13.60797000       0.11938800      -0.39530300      -0.51407000
S       18.45550000       3.67624000       0.81239000       0.31509600      -0.22764200       0.59188000
S        8.81323000       3.83601000       1.48723000       0.04635000       0.08061400       0.35386100
S       18.49186000      13.95150000       1.14130000       0.05649600      -0.26904500      -0.31398100
S        8.88320000      13.38322000       0.62769000      -1.33480500      -0.19444600       0.39565200
S       18.68439000       3.96937000      11.29572000      -0.41150900      -0.57381000       0.61833600
S        8.74071000       3.72586000      11.26190000      -0.15421500       0.22821400      -0.16357100
S       18.52595000      13.79102000      10.68839000      -0.02755900      -0.24962000       0.35481100
S        8.81759000      13.28137000      10.96189000      -0.78519800      -0.05065400      -0.83790000
S        6.00329000       0.99849000       1.11913000       0.30233900       0.90930500       0.14141900
S       15.87203000       1.06910000       1.97149000       0.48952700       0.38508300      -0.41872600
S        5.98802000      11.38842000       0.88517000      -0.66912200      -0.44775000       0.01451000
S       15.76866000      11.01764000       1.29057000       0.17622400      -0.08630300       0.07393800
S        5.65580000       1.31781000      11.17884000       0.83152500       0.09586900      -0.18603600
S       15.88881000       1.08161000      11.42004000      -0.20956400       0.38402500       0.28367500
S        6.15907000      11.10207000      10.85151000       0.48253600       0.36545700       0.04672500
S       16.06197000      10.74626000      10.90549000      -0.79700500       0.99870000      -0.03995700
S        8.72360000       0.82202000       3.48672000       0.30086900       0.97475400       0.89103300
S       18.80241000       1.37841000       3.76200000       0.12279200      -0.03865900      -0.11905400
S        8.65246000      11.28688000       4.04442000      -0.75030400      -0.58503600       0.16059200
S       18.22106000      11.03259000       3.85172000       0.24202000      -0.69771900      -0.65833500
S        8.66267000       1.32782000      14.12077000       0.50084200      -0.59269600      -0.83915700
S       18.63145000       1.04248000      13.72534000      -0.77140800      -0.44932500       0.39059700
S        8.53126000      11.14137000      14.10085000       0.57062700      -0.81341500       0.33358400
S       18.99726000      11.13825000      13.68789000      -0.95752000      -0.62022300      -0.23025600
S        3.26148000       9.00077000       0.89318000       0.79471900      -0.46018000       0.76745000
S       13.55733000       8.71722000       1.48576000      -0.44134600       0.53132200       0.03734200
S        3.78939000      18.39140000       0.49856000      -0.77264000      -0.08440500       0.20642000
S       13.88262000      18.41683000       1.35965000      -0.14193000      -0.25641000      -0.70116100
S        3.88673000       8.96867000      11.24830000      -0.83750800       0.01757600      -0.56134300
S       13.21985000       9.00635000      11.03182000       1.12880900      -0.66044100      -0.48632800
S        3.80467000      18.50988000      11.09368000      -0.29863400       0.21149700      -0.92502300
S       13.22642000      18.65951000      10.94928000       0.84237500      -0.09269700       1.33566700
S        9.00781000       8.59935000       6.23382000      -0.41841400       0.27115700       0.12020800
S       18.28293000       8.91043000       6.27177000       0.21682100       0.09950000       0.19779600
S        8.73266000      18.58770000       6.15170000       0.22696200      -0.23950400       0.02635400
S       18.36128000      18.46715000       5.69655000       0.01467700      -0.11060900       0.17579500
S        8.62434000       8.61752000      16.27658000      -0.43280300       0.51710000      -0.87568200
S       18.46394000       8.56111000      15.90030000      -0.55288900       0.61054900       0.34680800
S        9.05206000      18.45168000      16.06318000      -0.59859700       0.11965300       0.95856600
S       18.65899000      18.32539000      16.17773000      -0.82817400       0.84027700      -0.16018000
S       15.67145000       8.59512000      18.82544000       0.22011600       0.08105200      -0.14229800
S        6.06119000       8.73043000      18.74625000      -0.48980500       0.37582400      -0.38690400
S       16.44276000      19.09459000      18.88607000      -0.05999900      -0.80466100      -0.22703700
S        6.31283000      18.41494000      18.43642000       0.04106100       0.55257000       0.14030600
S       16.00118000       8.58273000       8.63975000      -0.32633400       0.07711500       0.01206500
S        6.17228000       8.55244000       8.84670000      -0.44472000      -0.05205100       0.17214800
S       16.08188000      18.60760000       9.18128000      -0.14986800      -0.59297500      -0.86123800
S        5.88277000      18.94924000       8.28087000       0.38589500      -0.76648000       1.27661900
S       10.94979000       8.69948000      13.75528000      -0.65481100      -0.46239100      -0.64004200
S        1.48259000       8.36919000      14.18911000       0.04449300       1.20835200      -0.57600800
S       11.01357000      18.29986000      13.83584000       0.28297900       1.39751200      -0.86032200
S        0.81264000      18.21044000      13.55309000       1.01598100       0.36486300      -0.96924200
S       11.11216000       8.87203000       3.72867000      -0.00185400       0.75848200       0.54082900
S        0.84892000       8.38029000       4.15049000       0.61796300       0.17803800      -0.56041300
S       11.67384000      19.45498000       4.38911000       0.12018500      -0.95147300      -0.43244000
S        1.14826000      18.55224000       3.62726000       0.38565300       0.42812200       0.18705400
S        3.85006000       1.34993000       8.53178000      -0.72681100       0.24253000       0.68916100
S       13.70351000       1.19713000       8.80708000      -0.00018600       0.11684500       0.55497800
S        3.90876000      11.22873000       8.53017000      -0.41337800      -0.77830500       0.44287400
S       13.62921000      10.87947000       8.46843000       0.14555500       0.47459600       0.69996100
S        4.05309000       1.29585000      18.21081000       0.18016200       0.01218700       0.92486300
S       14.11072000       1.33575000      18.92451000      -0.37919500      -0.45402400      -0.64541100
S        3.50431000      10.94104000      18.28259000       1.12435000      -0.02968900      -0.81073600
S       13.23827000      10.97409000      18.78799000       0.20916400       0.32840900      -0.25164400
S        0.97886000       0.94458000       6.33069000       0.31076000       0.03833000      -0.43394700
S       10.33907000       1.62650000       6.47182000       0.31396000       0.22548400      -0.34339900
S        1.00619000      11.36553000       5.66309000      -0.05399400      -0.82463300       0.54813600
S       10.94066000      11.35236000       6.08967000       0.92290800      -0.80285400       0.39618200
S        1.14234000       0.93103000      15.90580000       0.37255900       0.11487300       0.23727300
S       11.33194000       1.43176000      15.82414000      -0.09997800      -0.96323800       0.16652100
S        1.17715000      10.92847000      16.07021000       0.17033900      -0.34488600       0.11024700
S       11.27832000      10.61941000      16.09573000      -0.35423200       1.07181500       0.59619200
Li       8.50370000       2.92630000       4.64300000      -0.40545800       0.01485800       0.57496200
Li      17.91567000       4.60472000       7.30325000      -0.10232600       0.04111900      -0.25120200
Li       5.11001000      13.82966000       7.83343000       0.00472800      -0.20441400      -0.09426200
Li      17.25767000      14.29914000       8.69163000      -0.04123900       0.14866800       0.03727200
Li       7.79759000       4.45888000      16.27756000       0.45686700       0.08677200       0.26142900
Li      18.01748000       4.89171000      16.82708000       0.05824100       0.13908900       0.07497600
Li       6.45365000      13.77109000      19.04567000       0.16796900       0.11770000       0.21608200
Li      17.06034000      14.80215000      18.70032000      -0.78388100      -0.48092900       0.19222200
Li       3.79697000       6.41020000       1.60928000      -0.21995100       0.09902700      -0.39875000
Li      12.71530000       5.11767000       2.00564000       0.05927100      -0.75017400      -0.41096800
Li       1.99246000      14.32882000       2.98555000       0.00117500       0.10360000       0.21859100
Li      11.99298000      14.62901000       3.55901000      -0.22175200      -0.44432800      -0.20188800
Li       2.90111000       4.75873000      11.35420000      -0.19593800       0.31661400       0.06948900
Li      12.32621000       4.92040000      11.53313000       0.62411600      -0.62995400       0.63722800
Li       3.13464000      14.60032000      11.70083000       0.12968900      -0.23942900      -0.15830900
Li      13.08627000      14.87988000      11.78232000      -0.24214800      -0.38784300      -0.13351200
Li       1.32840000       5.72427000       6.58479000       0.62420800       0.33092100       0.13149000
Li      12.65081000       4.70446000       7.68243000       0.26335600       0.68830500       0.31912900
Li       1.52815000      15.54807000       6.44707000       0.58994900       0.01229000       0.36697800
Li      12.95718000      15.42953000       8.64821000      -0.71401500       0.06379900      -0.59882100
Li       2.17481000       4.95005000      16.88230000      -0.13379600       0.45725500       0.03101500
Li      12.70050000       4.94946000      18.13258000      -0.07371900      -0.22305600      -0.26745200
Li       1.14340000      12.74889000      14.46976000       0.08804300      -0.09588800      -0.49400900
Li      14.14588000      15.01267000      17.59209000      -0.32406200      -0.00569000       0.34461200
Li       6.42501000       5.64325000       2.35027000       0.30300700       0.11539100      -0.27687200
Li      17.89093000       5.15928000       2.79198000       0.01262400       0.04576200       0.11976500
Li       7.83808000      14.86198000       3.59665000       0.74124400       0.67836200      -0.78964300
Li      18.05623000      14.79688000       3.34873000       0.11509100       0.19565700       0.08299500
Li       6.89309000       5.16094000      11.80889000      -0.00740100       0.03760000      -0.16389000
Li      16.85494000       5.63441000      12.10552000       0.33497400      -0.27814100       0.02591800
Li       8.35752000      14.89957000      12.69907000      -0.49295300       0.51045100      -0.66775500
Li      17.97484000      14.98983000      12.80615000       0.10340700       0.11609600      -0.09394300
Li       6.53041000      18.80988000       4.97153000       0.34393100       0.13654200      -0.17855000
Li      16.84242000       2.07896000       4.85589000      -0.59469000      -0.05339400       0.10835600
Li       6.28125000      11.69368000       5.34445000       0.06246700      -0.01278100       0.24117200
Li      18.55023000      12.75341000       5.40073000      -0.08228800       0.11851400       0.15703200
Li       5.98874000       2.20393000      15.49134000      -0.12772600      -0.07342400      -0.17291900
Li      17.58393000       2.97858000      14.91183000       0.18616800      -0.16454000      -0.25333800
Li       7.46531000      13.16005000      15.11903000      -0.02104700      -0.17844800      -0.43210400
Li      18.00940000      13.03908000      15.30422000      -0.12794000       0.03884900      -0.40625500
Li       4.95469000       1.92381000       3.10947000       0.16460000      -0.01458500      -0.00449800
Li      16.20921000       3.41146000       0.60096000      -1.03852900      -0.05801700       0.05439900
Li       4.58357000      12.19978000       2.69294000      -0.15945900      -0.25009100      -0.00463900
Li      14.63907000      12.83262000       2.12397000      -0.06531400       0.62638700      -0.10135200
Li       4.58789000       3.39215000      12.12883000       0.25153500      -0.15860100      -0.07309200
Li      14.05143000       2.33945000      13.69468000      -0.04795600      -0.16614100      -0.10876200
Li       4.55193000      12.47402000      11.77736000       0.10255300       0.14669300      -0.35252400
Li      14.69320000      12.60633000      11.83663000      -0.21546000      -0.10132100       0.12413500
Li       0.34063000       1.90708000       1.82941000       0.10450000      -0.02883200      -0.27742100
Li      10.56552000       1.31143000       1.75103000      -0.75871600      -0.20365000       0.27010500
Li      19.65477000      12.55762000       2.67289000       0.39969200      -0.34497000       0.05450600
Li       9.77357000      12.58517000       2.58897000       0.56286500       0.27917300       0.14365600
Li       0.09959000       1.80701000      11.89333000      -0.08746500       0.11442000      -0.20005000
Li      10.45940000       0.50155000      12.24563000      -0.19305800       0.35258000       0.05656300
Li      19.62145000      11.64754000      11.44128000       0.15733500       0.26920400      -0.04698500
Li       9.89058000      12.47874000      12.76623000       0.82281900       0.14211200       0.28609800
Li       6.65171000       2.90308000       9.16155000      -0.40316900       0.16223400       0.17946600
Li      17.71834000       2.33292000       9.56652000      -0.10147100      -0.04598400      -0.09733300
Li       6.76299000      12.99775000       9.58151000       0.11143500       0.16130100       0.75145300
Li      17.53927000      10.62788000       9.03684000       0.37394000       0.02930100      -0.37174200
Li       7.27964000       4.15104000      19.63448000      -0.32412300      -0.28022400      -0.13240400
Li      18.35386000       1.42480000      19.15343000      -0.68805400       0.23430200      -0.04091500
Li       8.05631000      11.48753000      19.16717000       0.26594300      -0.57741900      -0.12717100
Li      17.59201000      11.99729000      19.71154000       0.15088600      -0.12969900       0.15733400
Li       2.77090000       2.01711000       4.80759000      -0.06237000      -0.05374300       0.14524000
Li      11.47401000       3.18680000       4.72474000       0.06640100      -0.11970600      -0.04714700
Li       3.35231000      11.42785000       6.09197000       0.27557100      -0.14770700      -0.01830100
Li      11.05120000      13.72999000       6.29809000       0.23717600       0.22496000      -0.27970000
Li       1.70303000       3.31000000      14.45396000      -0.11757700      -0.02100000       0.01277400
Li      10.09843000       3.50101000      13.25161000       0.11334100      -0.31890300       0.42046200
Li       3.79455000      11.73278000      14.42111000      -0.07987200      -0.03940100      -0.08365200
Li      11.87244000      13.71045000      14.42947000      -0.02989600      -0.05869200      -0.67992100
Li       5.20079000       2.27620000       6.14161000       0.06383000       0.02621300       0.49376100
Li      15.12246000       1.87371000       7.07966000       0.22119100       0.48837500       0.02634000
Li       6.69381000       9.85503000       7.15260000       0.32131700       0.52435300      -0.45927600
Li      15.19536000      12.70088000       7.68150000      -0.21506200      -0.14075900       0.07424500
Li       5.29968000       3.46220000      18.14204000      -0.00113300      -0.28390600       0.03321300
Li      13.58860000       0.93760000      16.22923000      -0.17337400       0.65254900       0.17755700
Li       3.52410000      13.35400000      18.07265000       0.11963700       0.04483300       1.71635800
Li      14.93872000      12.37689000      17.69688000      -0.10492900       0.05040200       0.12790800
Li       0.09404000       2.73863000      17.16154000       0.15141300       0.03724900      -0.28582900
Li       8.82627000      18.10425000      18.77045000      -0.07388900       1.26729600      -0.02986700
Li      19.39387000      11.51531000      17.70885000       0.40285100       0.00869500       0.48062500
Li       9.82918000      12.52936000      15.92905000      -0.01709900      -0.16971500       0.32500600
Li      19.38783000       2.66861000       5.65897000      -0.22609600       0.43651400       0.36435700
Li       8.67871000       4.34360000       7.01890000      -0.05691000      -0.00803600       0.13898200
Li      19.74386000      12.03176000       7.67371000      -0.07266800      -0.02888700       0.46031700
Li       8.09582000      13.69556000       5.97513000       0.18070700       0.27029600      -0.01187700
Li      13.38200000       2.92485000      10.46010000       0.58648500      -0.23308700      -0.54957900