416
Lattice="19.7333079722652 0.0 0.0 0.0 19.7333079722652 0.0 0.0 0.0 19.7333079722652" Properties=species:S:1:pos:R:3:energies:R:1:forces:R:3 free_energy=-2751.13525390625 energy=-2751.13525390625 stress="0.0006386804161593318 0.00014397836639545858 0.0003217798366677016 0.00014397836639545858 0.00013415074499789625 -0.00024653912987560034 0.0003217798366677016 -0.00024653912987560034 0.00044668023474514484" pbc="T T T"
Cl       2.39721183      12.14444612      12.48339376      -2.31112576       0.00511634       0.01073111       0.00340550
Cl      17.30862819      12.53548665      17.32616827      -2.21454167       0.00599998      -0.00086965       0.00742961
Cl      12.38999709      12.26663217      12.23684118      -2.34489441       0.01044804      -0.00240317       0.00040186
Cl      12.14955140       2.51540610      12.13350861      -2.33869910      -0.00416942      -0.00758212       0.01043160
Cl      12.29022801      12.25595129       2.42607408      -2.30861115       0.00010289      -0.00080147      -0.00216441
Cl       2.43918103       7.27052043       7.64080438      -2.33466649      -0.01199837       0.00105718      -0.00423285
Cl      17.17256396       2.48570044       7.42806238      -2.29425955       0.00012455      -0.00336337      -0.00636587
Cl      17.11930945       7.19271875      12.81870593      -2.27242041      -0.00218687       0.00586619      -0.00009299
Cl       2.25530917       7.27067227      17.36515863      -2.33162355       0.00691495      -0.00224740      -0.00102250
Cl      17.21781704       7.14659690       2.69229915      -2.34641361       0.00026926      -0.00330914       0.00448632
Cl       2.51904337       2.41857037       2.65730437      -2.28838062      -0.00172425       0.00409270       0.00170664
Cl      17.37204115      12.58984770       7.59960265      -2.30585241      -0.00686456      -0.00026199       0.00017156
Cl      17.25258384       2.38750417      17.44710832      -2.21242142      -0.00871444       0.00506581       0.00684176
Cl       7.26711911       2.61664093      17.28014353      -2.33891726       0.00418960      -0.00106692      -0.00399716
Cl       7.27116292      12.23801591       7.32183227      -2.32368088      -0.00167451      -0.00054896      -0.00024333
Cl       7.34006463      16.95815640      12.24916154      -2.33026981       0.00277319       0.00066782      -0.00301125
Cl       4.79618313       5.00442840       0.05101427      -2.20402145       0.00394653      -0.00240793       0.00148905
Cl      14.81902964       9.75372041      14.75960079      -2.33536386       0.00736162       0.00078126       0.00283009
Cl       9.90904401      14.73026771      14.93340913      -2.31305599      -0.00059095      -0.01001406      -0.00188846
Cl       9.82612071      14.94988244       5.20158786      -2.24238396      -0.00321096      -0.00359648      -0.00635085
Cl      19.75242808      14.86722640      14.98715048      -2.29905248       0.01101299      -0.00001844       0.00916401
Cl       0.05944765       9.93225782       9.96200012      -2.33801103      -0.00484681       0.00046761       0.00393042
Cl       4.96944914      -0.16456908      14.88770835      -2.29021239      -0.00255891       0.00069368      -0.00133290
Cl       9.70781707      -0.10933469      19.81781598      -2.35620308       0.00756698       0.00320877       0.00000929
Cl      19.57570485       9.73784771       0.03006668      -2.22102070       0.00304972       0.00067643       0.00227392
Cl       4.92483687       9.92125297      15.09724600      -2.29957747      -0.00018041       0.00429836      -0.00727995
Cl      14.77674263      -0.34628273      15.00840662      -2.30676126      -0.00152957      -0.00800066       0.00172808
Cl       4.70982957       0.10360382       5.14847870      -2.34920263      -0.00020254      -0.00189316      -0.00227471
Cl      19.68342946      14.79899240       5.22338580      -2.39850640      -0.00275508      -0.00216340      -0.01170897
Cl      14.50573887      -0.25732525       4.98858655      -2.26564479      -0.00376487       0.00210129       0.00150116
Cl      19.57740501      19.54324960       9.93545911      -2.34172368      -0.00210407      -0.00136568       0.00686261
Cl       9.83261813       9.73495731       9.80357665      -2.34107256       0.00505130       0.00493537      -0.00381137
S       12.43037309       7.44407851       7.63521169      -7.33199644      -0.00111879       0.00138265       0.00141181
S        2.42218743       2.19085939      12.66277506      -7.08924961      -0.00864433      -0.00133519       0.00099023
S       12.00805821      17.36343598      17.21368390      -7.38092613      -0.00092002      -0.00712909       0.01065594
S       17.23287991      17.16665368       2.49686045      -7.16616249       0.00453016      -0.00392868       0.00644623
S       12.11703640       7.45128652      17.38962231      -7.08615208      -0.00386754      -0.00077500      -0.00216532
S        2.39311644      16.92290885       7.59948571      -7.21012926       0.00063544       0.00257663      -0.00447439
S        7.42905227       7.37690117       2.79086766      -7.24394608      -0.00076784      -0.00300738      -0.00139442
S        2.44691517      17.26044260      17.55331991      -7.26238394       0.00111535       0.00532190      -0.00028992
S       12.35415791      17.12245282       7.40349781      -7.21804905      -0.00055766       0.01072713       0.02060163
S       16.94702376      17.30322915      12.50950384      -7.18325281       0.00495042       0.00618605      -0.00384266
S        2.45857607      12.37957330       2.48267061      -7.37574530      -0.00445873      -0.00146673      -0.00091733
S        7.28259700       2.32561824       7.51950023      -7.51098299      -0.00446963      -0.00184939       0.00192688
S        7.31342081      17.27034185       2.31131114      -7.23245525       0.00148808      -0.00767345       0.01302073
S        7.35283973      12.20340265      17.30609159      -7.37418652       0.00909795      -0.00235020      -0.00175119
S       12.17913419       2.49128680       2.61676315      -7.27273798      -0.00091877      -0.00678425       0.00424511
S        7.24731266       7.38611115      12.23534335      -7.05190802      -0.01551334      -0.00403969       0.02536955
S       14.58816692       9.58937798       4.96809179      -7.16439724      -0.00289269      -0.00192382       0.00190376
S        9.91842138       0.04016841       9.84593069      -7.12610340       0.00486159      -0.00040564       0.00490960
S        9.77839382       4.90020829      15.15613858      -7.27476788       0.00184362       0.00012656      -0.00568837
S        4.90774977      14.88001454      10.02571312      -7.31282330       0.00678530      -0.00482485       0.00696419
S        4.70850287      14.77987380       0.25179643      -7.23153400      -0.00274518       0.00030723       0.00844257
S        4.84043878       4.89651418       9.79903679      -7.23306751       0.00909899      -0.00047113      -0.00397217
S       14.63348184      14.79064443       0.43790062      -6.99871159       0.00489977      -0.00008589       0.00370096
S       -0.08352690      19.35863948       0.08168964      -7.23126221      -0.00233681       0.00675105       0.00280334
S        0.09331170       4.89922692      14.88962958      -7.32230711      -0.00032317       0.00476798      -0.00826698
S        9.59643021       4.82535782       4.91132856      -7.30867386      -0.00106063       0.00148423      -0.00436636
S       14.57946834       4.80568795       0.35474725      -7.36747217      -0.00217099       0.00767287       0.00200274
S       14.53068973       4.75614727      10.16098423      -7.32592583      -0.00928256      -0.01764276       0.00504109
S       14.85557962      14.59749302      10.20297658      -7.28065681      -0.00544307       0.00141893      -0.00523759
S        4.77501005       9.98479783       4.85529643      -7.18611574      -0.00274055       0.00394567      -0.00204260
S        9.64307031      10.02241988      19.41237736      -7.22936821      -0.00672291      -0.00083427      -0.00799254
S       19.40489011       4.95097823       5.00900216      -7.15314770      -0.00047202      -0.00384025      -0.00323570
S        5.96539339       5.94892815       6.14513456      -7.10223389      -0.00573154      -0.00235912      -0.01148228
S       15.80052323       6.15572827       6.21500722      -7.04290915       0.00325465      -0.00350806       0.00074804
S        6.19596876      16.06364786       6.04062969      -6.96260929      -0.00519168      -0.00109044      -0.00452617
S       16.03262110      15.88041495       6.27200430      -7.09696484      -0.00605212      -0.01138276      -0.00575477
S        6.15179224       6.38358897      15.80210322      -7.05692053       0.00158566       0.01228878       0.00496790
S       15.85568501       5.88044325      16.08012256      -6.93579817       0.00173473       0.00847089       0.00773448
S        6.16032773      15.94379900      16.04799746      -7.02675486       0.00385618       0.00140136       0.00540623
S       15.71550715      15.93218410      16.31011405      -7.16297626       0.00393958       0.00408734      -0.01058196
S        3.52585038       5.82669984       3.85357953      -6.94181776      -0.00269198       0.00103208       0.00081939
S       13.46328333       5.97304994       3.86298137      -6.98647308      -0.00229749      -0.00398073       0.00957446
S        3.64569351      16.10853713       3.91360071      -6.99235773      -0.00284079       0.00888500       0.00003262
S       13.69659627      15.83438975       3.88386690      -6.98075247      -0.00016341       0.00360849      -0.00372425
S        3.77710006       6.32292843      13.57756742      -6.87930250      -0.00009853       0.00396577      -0.00653172
S       13.41265125       5.92666735      13.86356397      -6.99096918      -0.01288721       0.00366956      -0.00698867
S        3.59456336      15.75060540      13.91376817      -7.01358366       0.00502372       0.02495471       0.00097910
S       13.29483018      15.69088529      13.95150160      -6.74336576       0.00341427      -0.00819963      -0.01293582
S        0.91558286       6.02846963       1.41371766      -6.96737480      -0.00821218      -0.00811380      -0.00389102
S       10.92771011       6.13584580       1.12165420      -6.98682261       0.00582820       0.00586194       0.00569403
S        1.11512321      15.84011554       1.28409011      -7.05945253      -0.00114053      -0.00164026      -0.00032252
S       11.02075842      15.99885069       1.04711564      -6.99129248       0.00136697      -0.01089329      -0.00717741
S        1.06205642       6.05764520      11.24214081      -6.91467905       0.00918388      -0.00149861      -0.00958824
S       10.92306835       6.16762650      11.07898754      -6.98030615       0.00283573       0.01214617       0.01498833
S        1.16010909      15.80615823      11.45389381      -6.98799658       0.01337260       0.01135719       0.02034113
S       10.95958092      15.85985459      10.99218630      -6.79230165       0.00833809       0.01053393       0.00373334
S        8.49962411       6.30337388       8.79204759      -6.92341089      -0.02046704       0.00808355      -0.00784431
S       18.52858274       6.16593520       8.74253831      -7.08409882       0.00697692       0.01039270      -0.00294717
S        8.57507399      15.75304380       8.62522939      -7.04110241      -0.01165715       0.01855421      -0.00823765
S       18.60024569      15.81468238       9.10781725      -7.04501915       0.00582789       0.00610951      -0.01843013
S        8.48224623       6.10240751      18.67045279      -6.93298578      -0.00602606       0.00279421      -0.00628757
S       18.30663055       5.94591323      18.77223479      -7.00467205       0.01784471      -0.01757127       0.01749128
S        8.44564645      15.80774075      18.60866227      -7.02577305       0.00138006       0.00880304       0.00456028
S       18.34343988      15.74975181      18.78383389      -7.01162720       0.00800782      -0.00597838       0.00497776
S        3.62977185       3.58647808       6.33747182      -7.10410118       0.00444663      -0.00095774      -0.00975128
S       13.45120291       3.83135296       6.42091301      -7.12793827       0.00655374       0.01119316      -0.01081100
S        3.82412373      13.69665623       6.21722930      -7.13999128      -0.01335402      -0.01347815       0.00501546
S       13.73634137      13.51771848       6.22298547      -6.98768044      -0.00190043       0.00162566       0.00319524
S        3.80235989       4.04880805      16.00819441      -6.96616840       0.00962101      -0.00213978       0.00120980
S       13.28855324       3.60157321      16.20237015      -6.94100189      -0.00876106      -0.00443506      -0.00301123
S        3.93035792      13.47796388      16.28724492      -6.91355276       0.00394708       0.00450149       0.00098006
S       13.65848156      13.37309419      16.26841246      -6.97318935       0.01093131      -0.00428337       0.00084254
S        1.10192133       3.81356071      18.71928309      -6.76559210      -0.02151072       0.00994825       0.02105820
S       10.74822461       3.56509526      18.68398516      -7.12908459       0.00130296      -0.00536889      -0.00093737
S        1.09349446      13.55696109      18.51992186      -6.94524479      -0.00343643      -0.00257480      -0.00584400
S       10.96625334      13.58110970      18.56858927      -6.94366932       0.00435579      -0.01069859       0.00224578
S        1.02309628       3.68949196       8.97253839      -6.98173523      -0.01153976      -0.00009698       0.00443497
S       10.77126313       3.93741436       8.53698296      -7.01349926       0.00043975      -0.01407488      -0.01206294
S        1.23214260      13.44166030       9.02855778      -7.12954998      -0.00296646      -0.00533630       0.00255383
S       10.95402434      13.43431639       8.64221990      -7.00955772       0.00827146      -0.00617287      -0.00531805
S        5.85367959       3.47522519       3.84719987      -6.93458986       0.00441098      -0.00035280      -0.00049277
S       15.77983032       3.51627968       4.14405443      -6.94616604       0.00380418      -0.00544977      -0.00322844
S        6.06117181      13.69311090       3.79881453      -6.98608446      -0.00613940       0.00392023       0.00522438
S       16.20065203      13.54254969       3.91836552      -6.90427589       0.00076094       0.00488839      -0.00603783
S        6.08059433       3.84632750      13.57490997      -6.97557306       0.00726080      -0.00415787      -0.01381089
S       15.69672226       3.45176894      13.93054147      -6.99010324       0.00766337      -0.02200773      -0.01585758
S        6.10883009      13.56603370      13.72203784      -6.99801111       0.00719079       0.00216913      -0.00506908
S       15.96684843      13.70303641      13.90842736      -6.97739553       0.00424868      -0.00948435       0.00072065
S       18.40955039       3.56216740       1.35995333      -7.01212549       0.01215841       0.01309326      -0.02343392
S        8.47110384       3.78831629       1.26021843      -6.98556805      -0.00325856      -0.00320628       0.00006232
S       18.67296383      13.36921107       1.33811067      -6.92779016      -0.00015217      -0.00615108      -0.00117457
S        8.80158197      13.55263894       1.34459238      -6.98921490       0.00244638      -0.00192365       0.00475299
S       18.23148874       3.95799011      11.18132446      -6.86774349       0.00245100       0.00882611      -0.01488787
S        8.56716881       3.79746546      11.01867668      -7.12259483      -0.00670926      -0.00711374      -0.00275549
S       18.66817977      13.38086488      11.42829457      -6.80114317      -0.00771090      -0.00931379      -0.00047815
S        8.65290256      13.47268719      11.01380558      -7.03277206      -0.01224682      -0.00226513      -0.00403905
S        6.15558189       1.44669393       0.96816742      -7.01045561       0.00980474      -0.00189894      -0.00121262
S       15.88139360       1.13425512       1.35025814      -7.07209826       0.00029078      -0.00080253       0.00723533
S        6.04708254      10.84093612       1.24825838      -6.99637794       0.01112530       0.00776908       0.00574905
S       15.88590287      10.92603295       1.31234106      -6.78238010      -0.00724030       0.00256610      -0.00369588
S        6.07568586       0.92828281      11.08062464      -6.93807888       0.01156926       0.00975893      -0.00080889
S       15.92933375       1.08833001      11.04081925      -7.11473274      -0.00526389      -0.00864799       0.01462871
S        5.93654752      11.24007019      10.85327826      -6.79230404       0.00367683      -0.01290104       0.00409740
S       16.10633474      10.97874545      11.24759969      -7.04044533       0.00159577       0.00193121       0.01063786
S        8.48945329       1.10705263       3.78366790      -7.07225275      -0.00752285      -0.00505523      -0.00470895
S       18.27830450       0.94075767       3.99164684      -6.96066666       0.00653288      -0.00505531       0.00939393
S        8.70365468      11.01484868       3.60509617      -6.91370010      -0.00785813       0.00573426       0.00088981
S       18.53600948      10.87077705       3.75142175      -7.00267792       0.00123772       0.00515806      -0.00924793
S        8.45318298       1.26308911      13.57934521      -6.87727594       0.01485801      -0.01755576       0.01442097
S       18.24856212       1.01214362      13.85239175      -6.81221628      -0.00465393       0.00805676      -0.00664747
S        8.81711287      11.06483378      13.46295214      -6.82209444       0.00813073      -0.00639689       0.00741887
S       18.34419000      11.18648913      14.14605264      -6.98907995      -0.00754958       0.00231522      -0.00054345
S        3.77827460       8.37309249       1.35628681      -6.78698778      -0.00379378       0.00015122       0.00343761
S       13.55672359       8.48782303       1.20975856      -7.07626581       0.00040290      -0.00447339       0.00079408
S        3.88363847      18.85146279       1.38968865      -7.02972412      -0.00552730      -0.00551753       0.00997183
S       13.47295108      18.51392359       1.24348929      -7.01710033       0.00707498       0.00422090      -0.00210327
S        3.55212014       8.93309977      11.04155547      -6.93634415      -0.00318685      -0.00282851       0.01795357
S       13.53441310       8.80429471      11.21963245      -6.92838287      -0.01329929      -0.00711069      -0.00048965
S        3.61728882      18.39953106      11.25852761      -6.96142864      -0.00599730      -0.00883266       0.00385866
S       13.61192187      18.45580558      10.93385020      -6.99746609      -0.01725841      -0.01865077       0.01480249
S        8.69649535       8.89058704       6.24107521      -7.05365753       0.00215361      -0.00029969      -0.00327644
S       18.50314067       8.58725654       6.17203224      -7.00789356      -0.00561070       0.00228590       0.00864360
S        8.55082194      18.48955520       6.06917406      -6.96438503       0.00126180       0.01181825      -0.00973949
S       18.64458522      18.25535811       6.27581535      -6.98027277       0.00404993       0.00640267      -0.00135556
S        8.71135588       8.77541790      15.84385774      -6.97118282       0.00258815       0.00212225      -0.00088771
S       18.48846622       8.62792887      16.23659034      -6.84888029      -0.00419527      -0.00299275       0.01219505
S        8.57586816      18.57543362      15.81369359      -7.13155508       0.00643629       0.02549064      -0.03441142
S       18.50468434      18.40467200      16.25621565      -6.97638369      -0.00544657      -0.00378031       0.01420984
S       16.13038472       8.53124436      18.79059883      -6.97020483      -0.01000160       0.00176406       0.00016224
S        5.99289827       8.46052076      18.64635318      -6.99984455      -0.00272307       0.00283954      -0.00397769
S       15.86375867      18.64475341      18.62840254      -6.94961166       0.00772303      -0.00401869       0.00279909
S        6.01179500      18.75350487      18.44397306      -7.02130365       0.00721326      -0.00417076      -0.00388500
S       15.99158485       8.37841515       9.11220295      -6.93551731      -0.00217761       0.01241663       0.00210315
S        5.94755358       8.73894650       8.67326233      -7.08194685       0.03566536      -0.01640938       0.02279007
S       16.09294112      18.45911990       8.72881810      -6.99510241       0.00003555      -0.01375055      -0.00383551
S        5.78493386      18.42538869       8.66209549      -7.01115990       0.02724095      -0.02131587      -0.01846164
S       11.10545722       8.66537719      13.55214405      -7.03389406      -0.01199451       0.00324357       0.01110318
S        0.90618271       8.90021191      13.58150393      -6.91750431       0.00363815      -0.00704527      -0.00963640
S       10.89139628      -1.09516775      13.44597030      -7.07670593      -0.00639519       0.00410016      -0.00144655
S        0.94316837      18.44836199      13.76025979      -7.06985521       0.01025893       0.00557822       0.00600290
S       10.99153030       8.67145328       3.76500780      -7.04562855       0.00370716       0.00375208       0.00055742
S        1.32525338       8.69082113       4.09413595      -6.86985302      -0.00184107      -0.00181547       0.00023293
S       10.92759210      18.54176634       3.72248759      -7.04028797      -0.00546616       0.00980470       0.00511703
S        1.24322575      18.70567580       3.85995149      -6.89473057       0.00212926      -0.00342425       0.00761291
S        3.53662270       1.06946129       8.90510767      -7.07019997      -0.01526301       0.00827312      -0.01020259
S       13.71270002       1.02856429       8.49784123      -6.96217060      -0.00692187       0.00039631      -0.00831917
S        3.57474111      10.96838820       8.44272072      -6.91941261      -0.01190609       0.02609923      -0.00299960
S       13.88470216      10.98214796       8.73983727      -7.02284813      -0.00169279       0.00219288      -0.00143352
S        3.55406010       1.31231496      18.68395536      -6.94857168      -0.00325575       0.00322556      -0.00183448
S       13.39797037       1.10619842      18.73742511      -6.93988037      -0.00148192       0.00021099      -0.00594306
S        3.58782993      10.70750251      18.71023959      -7.03213596       0.00228950       0.00096247      -0.00096208
S       13.68869978      10.82938248      18.62212991      -6.92188358      -0.00226265       0.00478768      -0.00471002
S        0.87432025       1.17723047       6.29799322      -7.06347609       0.00696506       0.01162025       0.01476440
S       10.83543275       1.18407868       6.12572194      -6.98763609       0.00935903      -0.01517308      -0.00438467
S        0.97794165      11.14518761       6.25059669      -6.99970770      -0.00158654       0.00159261       0.00384337
S       10.97511926      11.25529508       5.94563317      -6.96083832       0.00502530      -0.00074390       0.00289205
S        1.00384306       1.13174542      16.07069694      -7.08304787       0.00982550       0.00743499       0.00665694
S       10.97933667       1.18171366      15.80851724      -6.94405174      -0.00936189       0.01190796      -0.00920451
S        1.24276868      10.87031854      16.15023879      -7.03955269       0.00531787      -0.00056708       0.00278267
S       11.25504357      11.06974256      15.75330455      -6.93847036      -0.01098233      -0.00890931      -0.00554809
Li       6.47531255       2.97995046       9.81018655      -7.98360729       0.00456859       0.00121879       0.00139000
Li      17.75652124       4.85426306       6.75306617      -8.05542946      -0.00711805      -0.00684546       0.00391504
Li       7.97290257      14.39344685       6.61251247      -8.12456512       0.00087603       0.00098532      -0.00728717
Li      18.08681583      14.78759039       7.07851600      -7.93430090      -0.00539258       0.00409019       0.00733089
Li       7.87118336       4.95603474      16.65908620      -8.02465630       0.00912344      -0.01000792       0.00553640
Li      15.83814332       6.09391852      18.51391790      -7.97623444       0.00042485       0.00123437      -0.00022664
Li       8.23642904      14.34982602      16.57606758      -8.09524059       0.00848879      -0.00756242       0.00554864
Li      17.89847482      14.95054825      16.50218550      -7.99813509       0.00418698      -0.00077575      -0.00175509
Li       1.35269671       4.47763094       3.38365713      -8.11943150       0.00528112      -0.00197744       0.00009480
Li      12.60903516       4.66753543       1.92854763      -7.98709536       0.00033198       0.00356791      -0.00123730
Li       3.14009417      14.71406375       2.05542836      -7.93707895       0.00595246       0.00118073      -0.00378682
Li      12.84012247      14.55731326       1.99879504      -8.05925751       0.00284544      -0.00281386       0.00209503
Li       0.50289294       3.73714817      12.68265967      -8.07504368      -0.02515831      -0.01195640       0.00892325
Li      12.75178129       4.83315947      11.83310540      -7.94023657      -0.00092655      -0.01111117      -0.00557734
Li       4.92542214      16.32916606      11.99577096      -8.02133846       0.00181746      -0.00144184       0.00345610
Li      15.23781844      15.65997315      12.41126230      -8.07769489      -0.00705047       0.00215080      -0.00454899
Li       2.87951915       4.96781298       8.29702481      -7.98342848       0.00379717       0.00446932       0.00517896
Li      11.39409368       5.47038156       6.60606181      -8.05462074      -0.00062664      -0.00012469      -0.00035775
Li       1.66647303      14.76458671       7.02192112      -8.00866985      -0.00120106      -0.00196545       0.00881363
Li      11.83168497      14.89942412       6.73107446      -8.10050869       0.00118095       0.00172262      -0.00876555
Li       2.62981995       5.86712392      19.32170938      -8.22211933      -0.00092213       0.00310236      -0.00598601
Li      11.40204156       5.21302602      16.99002269      -7.99916935      -0.00035373      -0.00409514       0.00228813
Li       3.01722553      15.00727768      17.95716170      -8.03672886      -0.00077572       0.00696012       0.00067605
Li      11.84435203      15.00742655      16.75093289      -8.03920460      -0.00934602       0.00947223       0.00143504
Li       7.61347317       5.00249683       3.23179675      -7.99146080      -0.00421404      -0.00054618       0.00163175
Li      17.69223928       4.82030836       3.37375190      -8.09757328      -0.00440907       0.00569652      -0.00029933
Li       6.79626315      14.97874639       1.86164461      -8.03343964      -0.00483215      -0.00358996       0.00319961
Li       0.63299459      13.96763965       2.98922167      -8.05044937       0.00208109      -0.00089742       0.00274929
Li       6.69898893       5.22162582      11.53970902      -8.03530788       0.00139222       0.00037462      -0.00340369
Li      14.57410086       2.91679712      11.87761446      -7.98790455      -0.00510699       0.00885160      -0.00282930
Li       8.21972028      14.80221651      13.04434051      -8.14364433       0.00091226      -0.00146826      -0.01024558
Li      16.53309208      16.52567050      10.27621373      -8.12339592       0.01156160       0.00176667      -0.00004281
Li       8.36568982       4.64282151       7.06237934      -7.95786238       0.00216912      -0.00062622       0.00053290
Li      -0.85767075       2.70475654       5.55589197      -8.10153103       0.00064084       0.00603788       0.00757584
Li       5.62898550      12.11419495       5.54733765      -8.01679611       0.00261171       0.00608561      -0.00155735
Li      18.26209583      12.70171451       5.27179802      -8.03225136      -0.00029102       0.00494181      -0.00141345
Li       8.52551307       3.73065120      13.57097956      -7.95233488       0.00652456      -0.00118877      -0.00052420
Li      16.30496804       1.56931155      15.39355208      -8.16517258       0.00246049      -0.00021484       0.00410545
Li       5.10289281      11.42652867      16.99825636      -8.03368759      -0.00458587       0.00745848      -0.00285343
Li      16.06217686      11.80755986      15.45066188      -8.17118359       0.00167321      -0.00499995      -0.00049633
Li       4.70612444       1.31348625       2.90325932      -8.02419758       0.00232175      -0.00012365       0.00412840
Li      14.47173641       2.95980487       2.13582508      -8.05802059       0.00513935      -0.00110448      -0.00054631
Li       4.80815112      12.76091926       1.94684950      -7.92602062      -0.00430523      -0.00225402      -0.00328476
Li      14.15445797      12.49671925       0.71171849      -8.09838390       0.00035486       0.00763803       0.00253570
Li       3.08612164       3.34921881      10.65929144      -8.13134193      -0.00227554       0.00921370       0.01728314
Li      17.94494629      -0.39464312      11.79187801      -8.12820816      -0.00935136      -0.00514293      -0.00770088
Li       4.60426737      13.12476761      11.79156975      -8.10577106       0.00319886       0.00012899       0.00071110
Li      14.71765398      12.90843226      12.00059792      -8.01199913      -0.00563806       0.00059871      -0.00248817
Li      18.49693187       1.11657615       1.49468327      -8.00256538       0.00166559      -0.00077585       0.00214685
Li       9.93625777       3.09824077       2.99693101      -8.00007343       0.00279499      -0.00117995       0.00136746